<?xml version="1.0" encoding="UTF-8"?>

<!-- generated on 2026-06-19T11:52:08.450703+05:30 by Eclipse SUMO GUI 1.27.0
<sumoConfiguration xmlns:xsi="http://www.w3.org/2001/XMLSchema-instance" xsi:noNamespaceSchemaLocation="http://sumo.dlr.de/xsd/sumoConfiguration.xsd">

    <input>
        <net-file value="C:\Users\Lenovo\Downloads\AI_Metro_Digital_Twin\sumo\../osm/indore_construction.net.xml"/>
        <route-files value="C:\Users\Lenovo\Downloads\AI_Metro_Digital_Twin\sumo\../data/raw/routes.rou.xml"/>
    </input>

    <output>
        <emission-output value="C:\Users\Lenovo\Downloads\AI_Metro_Digital_Twin\sumo\../data/simulation_output/construction_emission.xml"/>
        <summary-output value="C:\Users\Lenovo\Downloads\AI_Metro_Digital_Twin\sumo\../data/simulation_output/construction_summary.xml"/>
        <tripinfo-output value="C:\Users\Lenovo\Downloads\AI_Metro_Digital_Twin\sumo\../data/simulation_output/construction_tripinfo.xml"/>
    </output>

    <time>
        <begin value="0"/>
        <end value="3600"/>
    </time>

</sumoConfiguration>
-->

<tripinfos xmlns:xsi="http://www.w3.org/2001/XMLSchema-instance" xsi:noNamespaceSchemaLocation="http://sumo.dlr.de/xsd/tripinfo_file.xsd">
    <tripinfo id="0" depart="0.00" departLane="191500056#1_0" departPos="5.10" departSpeed="13.89" departDelay="0.00" arrival="13.00" arrivalLane="-191499993#1_0" arrivalPos="26.92" arrivalSpeed="12.70" duration="13.00" routeLength="135.82" waitingTime="0.00" waitingCount="0" stopTime="0.00" timeLoss="2.65" rerouteNo="0" devices="tripinfo_0 emissions_0" vType="DEFAULT_VEHTYPE" speedFactor="1.06" vaporized="">
        <emissions CO_abs="250.67" CO2_abs="38937.74" HC_abs="1.66" PMx_abs="2.95" NOx_abs="13.10" fuel_abs="12623.03" electricity_abs="0.00"/>
    </tripinfo>
    <tripinfo id="4" depart="4.00" departLane="192414552#2_0" departPos="5.10" departSpeed="13.89" departDelay="0.00" arrival="33.00" arrivalLane="-1128414347_0" arrivalPos="49.40" arrivalSpeed="13.14" duration="29.00" routeLength="279.12" waitingTime="0.00" waitingCount="0" stopTime="0.00" timeLoss="6.66" rerouteNo="0" devices="tripinfo_4 emissions_4" vType="DEFAULT_VEHTYPE" speedFactor="1.03" vaporized="">
        <emissions CO_abs="518.35" CO2_abs="87992.09" HC_abs="3.44" PMx_abs="6.76" NOx_abs="29.42" fuel_abs="28525.72" electricity_abs="0.00"/>
    </tripinfo>
    <tripinfo id="18" depart="18.00" departLane="-192414652#3_0" departPos="5.10" departSpeed="13.00" departDelay="0.00" arrival="38.00" arrivalLane="-192414527#1_0" arrivalPos="15.94" arrivalSpeed="7.50" duration="20.00" routeLength="144.53" waitingTime="0.00" waitingCount="0" stopTime="0.00" timeLoss="7.00" rerouteNo="0" devices="tripinfo_18 emissions_18" vType="DEFAULT_VEHTYPE" speedFactor="0.94" vaporized="">
        <emissions CO_abs="135.01" CO2_abs="39705.08" HC_abs="0.90" PMx_abs="2.80" NOx_abs="12.62" fuel_abs="12871.80" electricity_abs="0.00"/>
    </tripinfo>
    <tripinfo id="19" depart="20.00" departLane="192414652#5_0" departPos="5.10" departSpeed="0.94" departDelay="1.00" arrival="44.00" arrivalLane="-192414633#1_0" arrivalPos="15.12" arrivalSpeed="14.96" duration="24.00" routeLength="278.70" waitingTime="0.00" waitingCount="0" stopTime="0.00" timeLoss="5.54" rerouteNo="0" devices="tripinfo_19 emissions_19" vType="DEFAULT_VEHTYPE" speedFactor="1.16" vaporized="">
        <emissions CO_abs="667.83" CO2_abs="95225.78" HC_abs="4.43" PMx_abs="6.97" NOx_abs="32.19" fuel_abs="30870.67" electricity_abs="0.00"/>
    </tripinfo>
    <tripinfo id="6" depart="6.00" departLane="-191500069_0" departPos="5.10" departSpeed="13.89" departDelay="0.00" arrival="45.00" arrivalLane="-191500054#0_0" arrivalPos="107.32" arrivalSpeed="13.97" duration="39.00" routeLength="383.87" waitingTime="0.00" waitingCount="0" stopTime="0.00" timeLoss="9.92" rerouteNo="0" devices="tripinfo_6 emissions_6" vType="DEFAULT_VEHTYPE" speedFactor="1.05" vaporized="">
        <emissions CO_abs="684.14" CO2_abs="116540.00" HC_abs="4.54" PMx_abs="8.76" NOx_abs="38.86" fuel_abs="37780.54" electricity_abs="0.00"/>
    </tripinfo>
    <tripinfo id="8" depart="8.00" departLane="-322498900_0" departPos="5.10" departSpeed="13.03" departDelay="0.00" arrival="45.00" arrivalLane="191495002#3_1" arrivalPos="11.09" arrivalSpeed="25.55" duration="37.00" routeLength="454.81" waitingTime="0.00" waitingCount="0" stopTime="0.00" timeLoss="11.08" rerouteNo="0" devices="tripinfo_8 emissions_8" vType="DEFAULT_VEHTYPE" speedFactor="0.94" vaporized="">
        <emissions CO_abs="1796.40" CO2_abs="171135.89" HC_abs="11.93" PMx_abs="13.84" NOx_abs="64.06" fuel_abs="55479.37" electricity_abs="0.00"/>
    </tripinfo>
    <tripinfo id="16" depart="16.00" departLane="191499993#1_0" departPos="5.10" departSpeed="11.77" departDelay="0.00" arrival="45.00" arrivalLane="191500071#1_0" arrivalPos="68.56" arrivalSpeed="11.09" duration="29.00" routeLength="264.78" waitingTime="0.00" waitingCount="0" stopTime="0.00" timeLoss="4.98" rerouteNo="0" devices="tripinfo_16 emissions_16" vType="DEFAULT_VEHTYPE" speedFactor="0.88" vaporized="">
        <emissions CO_abs="344.11" CO2_abs="71222.30" HC_abs="2.28" PMx_abs="5.72" NOx_abs="23.61" fuel_abs="23089.27" electricity_abs="0.00"/>
    </tripinfo>
    <tripinfo id="10" depart="10.00" departLane="-192414498#1_0" departPos="5.10" departSpeed="13.89" departDelay="0.00" arrival="51.00" arrivalLane="-192414600#1_0" arrivalPos="29.45" arrivalSpeed="11.72" duration="41.00" routeLength="388.54" waitingTime="0.00" waitingCount="0" stopTime="0.00" timeLoss="13.17" rerouteNo="0" devices="tripinfo_10 emissions_10" vType="DEFAULT_VEHTYPE" speedFactor="1.09" vaporized="">
        <emissions CO_abs="735.38" CO2_abs="124073.28" HC_abs="4.88" PMx_abs="8.84" NOx_abs="40.72" fuel_abs="40222.60" electricity_abs="0.00"/>
    </tripinfo>
    <tripinfo id="14" depart="14.00" departLane="191500089#0_0" departPos="5.10" departSpeed="13.77" departDelay="0.00" arrival="52.00" arrivalLane="191499993#3_0" arrivalPos="334.94" arrivalSpeed="13.00" duration="38.00" routeLength="449.72" waitingTime="0.00" waitingCount="0" stopTime="0.00" timeLoss="3.72" rerouteNo="0" devices="tripinfo_14 emissions_14" vType="DEFAULT_VEHTYPE" speedFactor="0.99" vaporized="">
        <emissions CO_abs="472.17" CO2_abs="80668.09" HC_abs="3.15" PMx_abs="9.00" NOx_abs="28.44" fuel_abs="26151.58" electricity_abs="0.00"/>
    </tripinfo>
    <tripinfo id="31" depart="31.00" departLane="-1264769829_0" departPos="0.20" departSpeed="0.00" departDelay="0.00" arrival="52.00" arrivalLane="191500104#2_0" arrivalPos="9.97" arrivalSpeed="7.39" duration="21.00" routeLength="178.53" waitingTime="1.00" waitingCount="1" stopTime="0.00" timeLoss="11.63" rerouteNo="0" devices="tripinfo_31 emissions_31" vType="DEFAULT_VEHTYPE" speedFactor="1.15" vaporized="">
        <emissions CO_abs="813.41" CO2_abs="99219.48" HC_abs="5.37" PMx_abs="5.28" NOx_abs="33.92" fuel_abs="32165.11" electricity_abs="0.00"/>
    </tripinfo>
    <tripinfo id="38" depart="38.00" departLane="191500054#0_0" departPos="5.10" departSpeed="13.89" departDelay="0.00" arrival="57.00" arrivalLane="-191500104#1_0" arrivalPos="29.23" arrivalSpeed="12.04" duration="19.00" routeLength="228.60" waitingTime="0.00" waitingCount="0" stopTime="0.00" timeLoss="4.29" rerouteNo="0" devices="tripinfo_38 emissions_38" vType="DEFAULT_VEHTYPE" speedFactor="1.10" vaporized="">
        <emissions CO_abs="323.87" CO2_abs="51282.50" HC_abs="2.16" PMx_abs="5.28" NOx_abs="17.67" fuel_abs="16625.08" electricity_abs="0.00"/>
    </tripinfo>
    <tripinfo id="15" depart="15.00" departLane="-191500119_0" departPos="5.10" departSpeed="20.59" departDelay="0.00" arrival="61.00" arrivalLane="191500119_0" arrivalPos="375.22" arrivalSpeed="20.22" duration="46.00" routeLength="750.98" waitingTime="0.00" waitingCount="0" stopTime="0.00" timeLoss="7.63" rerouteNo="0" devices="tripinfo_15 emissions_15" vType="DEFAULT_VEHTYPE" speedFactor="0.93" vaporized="">
        <emissions CO_abs="1671.32" CO2_abs="162846.64" HC_abs="11.21" PMx_abs="18.25" NOx_abs="60.98" fuel_abs="52792.36" electricity_abs="0.00"/>
    </tripinfo>
    <tripinfo id="41" depart="41.00" departLane="-1074802276_0" departPos="5.10" departSpeed="13.29" departDelay="0.00" arrival="61.00" arrivalLane="-192414633#3_0" arrivalPos="20.35" arrivalSpeed="12.08" duration="20.00" routeLength="214.98" waitingTime="0.00" waitingCount="0" stopTime="0.00" timeLoss="2.81" rerouteNo="0" devices="tripinfo_41 emissions_41" vType="DEFAULT_VEHTYPE" speedFactor="0.96" vaporized="">
        <emissions CO_abs="234.89" CO2_abs="44371.58" HC_abs="1.57" PMx_abs="4.40" NOx_abs="15.31" fuel_abs="14384.69" electricity_abs="0.00"/>
    </tripinfo>
    <tripinfo id="5" depart="5.00" departLane="467718343#0_0" departPos="5.10" departSpeed="11.54" departDelay="0.00" arrival="63.00" arrivalLane="-192414652#2_0" arrivalPos="15.17" arrivalSpeed="10.41" duration="58.00" routeLength="604.29" waitingTime="0.00" waitingCount="0" stopTime="0.00" timeLoss="4.48" rerouteNo="0" devices="tripinfo_5 emissions_5" vType="DEFAULT_VEHTYPE" speedFactor="0.83" vaporized="">
        <emissions CO_abs="494.09" CO2_abs="105241.60" HC_abs="3.30" PMx_abs="11.06" NOx_abs="36.39" fuel_abs="34118.05" electricity_abs="0.00"/>
    </tripinfo>
    <tripinfo id="27" depart="28.00" departLane="-191500069_0" departPos="5.10" departSpeed="11.83" departDelay="1.00" arrival="65.00" arrivalLane="191500047#1_0" arrivalPos="128.18" arrivalSpeed="11.99" duration="37.00" routeLength="356.31" waitingTime="0.00" waitingCount="0" stopTime="0.00" timeLoss="7.84" rerouteNo="0" devices="tripinfo_27 emissions_27" vType="DEFAULT_VEHTYPE" speedFactor="0.95" vaporized="">
        <emissions CO_abs="471.84" CO2_abs="92443.39" HC_abs="3.13" PMx_abs="7.79" NOx_abs="30.76" fuel_abs="29968.85" electricity_abs="0.00"/>
    </tripinfo>
    <tripinfo id="35" depart="35.00" departLane="192414652#5_0" departPos="5.10" departSpeed="0.94" departDelay="0.00" arrival="65.00" arrivalLane="-192414527#0_0" arrivalPos="17.03" arrivalSpeed="13.16" duration="30.00" routeLength="241.04" waitingTime="0.00" waitingCount="0" stopTime="0.00" timeLoss="9.93" rerouteNo="0" devices="tripinfo_35 emissions_35" vType="DEFAULT_VEHTYPE" speedFactor="1.02" vaporized="">
        <emissions CO_abs="561.00" CO2_abs="105234.16" HC_abs="3.71" PMx_abs="6.27" NOx_abs="33.68" fuel_abs="34115.20" electricity_abs="0.00"/>
    </tripinfo>
    <tripinfo id="40" depart="40.00" departLane="192414498#0_0" departPos="3.92" departSpeed="0.00" departDelay="0.00" arrival="69.00" arrivalLane="191495001#2_1" arrivalPos="48.80" arrivalSpeed="27.90" duration="29.00" routeLength="586.44" waitingTime="0.00" waitingCount="0" stopTime="0.00" timeLoss="6.60" rerouteNo="0" devices="tripinfo_40 emissions_40" vType="DEFAULT_VEHTYPE" speedFactor="1.03" vaporized="">
        <emissions CO_abs="2742.36" CO2_abs="202275.15" HC_abs="18.40" PMx_abs="20.00" NOx_abs="80.19" fuel_abs="65573.95" electricity_abs="0.00"/>
    </tripinfo>
    <tripinfo id="34" depart="34.00" departLane="1264691596#0_0" departPos="5.10" departSpeed="10.59" departDelay="0.00" arrival="70.00" arrivalLane="322498900_0" arrivalPos="116.24" arrivalSpeed="13.67" duration="36.00" routeLength="469.49" waitingTime="0.00" waitingCount="0" stopTime="0.00" timeLoss="9.20" rerouteNo="0" devices="tripinfo_34 emissions_34" vType="DEFAULT_VEHTYPE" speedFactor="0.99" vaporized="">
        <emissions CO_abs="1246.56" CO2_abs="136520.00" HC_abs="8.30" PMx_abs="11.97" NOx_abs="49.37" fuel_abs="44257.63" electricity_abs="0.00"/>
    </tripinfo>
    <tripinfo id="53" depart="53.00" departLane="-191500047#1_0" departPos="5.10" departSpeed="13.14" departDelay="0.00" arrival="75.00" arrivalLane="191500047#1_0" arrivalPos="128.18" arrivalSpeed="14.94" duration="22.00" routeLength="255.93" waitingTime="0.00" waitingCount="0" stopTime="0.00" timeLoss="3.64" rerouteNo="0" devices="tripinfo_53 emissions_53" vType="DEFAULT_VEHTYPE" speedFactor="1.10" vaporized="">
        <emissions CO_abs="448.61" CO2_abs="68520.55" HC_abs="2.99" PMx_abs="6.88" NOx_abs="23.72" fuel_abs="22213.41" electricity_abs="0.00"/>
    </tripinfo>
    <tripinfo id="43" depart="44.00" departLane="320263328#0_0" departPos="5.10" departSpeed="13.72" departDelay="1.00" arrival="77.00" arrivalLane="322498900_0" arrivalPos="116.24" arrivalSpeed="13.92" duration="33.00" routeLength="433.20" waitingTime="0.00" waitingCount="0" stopTime="0.00" timeLoss="10.37" rerouteNo="0" devices="tripinfo_43 emissions_43" vType="DEFAULT_VEHTYPE" speedFactor="1.04" vaporized="">
        <emissions CO_abs="1360.86" CO2_abs="142426.99" HC_abs="9.02" PMx_abs="11.01" NOx_abs="51.96" fuel_abs="46172.47" electricity_abs="0.00"/>
    </tripinfo>
    <tripinfo id="54" depart="54.00" departLane="386908024_0" departPos="5.10" departSpeed="22.22" departDelay="0.00" arrival="79.00" arrivalLane="191495039#1_2" arrivalPos="195.92" arrivalSpeed="26.13" duration="25.00" routeLength="387.67" waitingTime="0.00" waitingCount="0" stopTime="0.00" timeLoss="7.94" rerouteNo="0" devices="tripinfo_54 emissions_54" vType="DEFAULT_VEHTYPE" speedFactor="1.00" vaporized="">
        <emissions CO_abs="1611.91" CO2_abs="133504.85" HC_abs="10.73" PMx_abs="12.05" NOx_abs="51.74" fuel_abs="43279.93" electricity_abs="0.00"/>
    </tripinfo>
    <tripinfo id="46" depart="46.00" departLane="-192414535_0" departPos="5.10" departSpeed="0.00" departDelay="0.00" arrival="81.00" arrivalLane="192414652#0_0" arrivalPos="30.72" arrivalSpeed="10.98" duration="35.00" routeLength="294.44" waitingTime="0.00" waitingCount="0" stopTime="0.00" timeLoss="12.07" rerouteNo="0" devices="tripinfo_46 emissions_46" vType="DEFAULT_VEHTYPE" speedFactor="1.00" vaporized="">
        <emissions CO_abs="562.44" CO2_abs="112894.46" HC_abs="3.72" PMx_abs="7.34" NOx_abs="35.66" fuel_abs="36598.53" electricity_abs="0.00"/>
    </tripinfo>
    <tripinfo id="56" depart="56.00" departLane="192414552#2_0" departPos="5.10" departSpeed="12.49" departDelay="0.00" arrival="82.00" arrivalLane="-191501580#1_0" arrivalPos="1.62" arrivalSpeed="7.22" duration="26.00" routeLength="235.72" waitingTime="0.00" waitingCount="0" stopTime="0.00" timeLoss="4.95" rerouteNo="0" devices="tripinfo_56 emissions_56" vType="DEFAULT_VEHTYPE" speedFactor="0.90" vaporized="">
        <emissions CO_abs="207.78" CO2_abs="49415.13" HC_abs="1.38" PMx_abs="4.30" NOx_abs="16.42" fuel_abs="16019.72" electricity_abs="0.00"/>
    </tripinfo>
    <tripinfo id="22" depart="22.00" departLane="-192414535_0" departPos="5.10" departSpeed="13.54" departDelay="0.00" arrival="84.00" arrivalLane="-192414479_0" arrivalPos="51.32" arrivalSpeed="13.39" duration="62.00" routeLength="355.45" waitingTime="24.00" waitingCount="1" stopTime="0.00" timeLoss="33.60" rerouteNo="0" devices="tripinfo_22 emissions_22" vType="DEFAULT_VEHTYPE" speedFactor="0.97" vaporized="">
        <emissions CO_abs="599.35" CO2_abs="149064.54" HC_abs="3.98" PMx_abs="8.78" NOx_abs="51.69" fuel_abs="48324.85" electricity_abs="0.00"/>
    </tripinfo>
    <tripinfo id="13" depart="13.00" departLane="-322498900_0" departPos="5.10" departSpeed="12.74" departDelay="0.00" arrival="88.00" arrivalLane="-191618091#0_0" arrivalPos="319.01" arrivalSpeed="14.56" duration="75.00" routeLength="1023.62" waitingTime="0.00" waitingCount="0" stopTime="0.00" timeLoss="17.99" rerouteNo="0" devices="tripinfo_13 emissions_13" vType="DEFAULT_VEHTYPE" speedFactor="1.12" vaporized="">
        <emissions CO_abs="2279.84" CO2_abs="259823.13" HC_abs="15.17" PMx_abs="25.47" NOx_abs="95.29" fuel_abs="84230.76" electricity_abs="0.00"/>
    </tripinfo>
    <tripinfo id="49" depart="49.00" departLane="-191501601#1_0" departPos="5.10" departSpeed="11.81" departDelay="0.00" arrival="89.00" arrivalLane="-192414633#0_0" arrivalPos="16.91" arrivalSpeed="11.48" duration="40.00" routeLength="389.92" waitingTime="0.00" waitingCount="0" stopTime="0.00" timeLoss="4.54" rerouteNo="0" devices="tripinfo_49 emissions_49" vType="DEFAULT_VEHTYPE" speedFactor="0.85" vaporized="">
        <emissions CO_abs="380.76" CO2_abs="87948.80" HC_abs="2.54" PMx_abs="8.84" NOx_abs="30.09" fuel_abs="28511.92" electricity_abs="0.00"/>
    </tripinfo>
    <tripinfo id="60" depart="60.00" departLane="-191501580#2_0" departPos="5.10" departSpeed="13.89" departDelay="0.00" arrival="90.00" arrivalLane="1023336857#1_1" arrivalPos="0.20" arrivalSpeed="4.99" duration="30.00" routeLength="273.52" waitingTime="0.00" waitingCount="0" stopTime="0.00" timeLoss="9.71" rerouteNo="0" devices="tripinfo_60 emissions_60" vType="DEFAULT_VEHTYPE" speedFactor="1.08" vaporized="">
        <emissions CO_abs="474.51" CO2_abs="77934.11" HC_abs="3.15" PMx_abs="6.02" NOx_abs="25.63" fuel_abs="25265.03" electricity_abs="0.00"/>
    </tripinfo>
    <tripinfo id="59" depart="59.00" departLane="192414652#2_0" departPos="5.10" departSpeed="7.28" departDelay="0.00" arrival="94.00" arrivalLane="-192414479_0" arrivalPos="51.32" arrivalSpeed="12.96" duration="35.00" routeLength="201.02" waitingTime="5.00" waitingCount="1" stopTime="0.00" timeLoss="16.65" rerouteNo="0" devices="tripinfo_59 emissions_59" vType="DEFAULT_VEHTYPE" speedFactor="0.97" vaporized="">
        <emissions CO_abs="408.57" CO2_abs="99000.59" HC_abs="2.70" PMx_abs="5.29" NOx_abs="32.16" fuel_abs="32094.45" electricity_abs="0.00"/>
    </tripinfo>
    <tripinfo id="92" depart="92.00" departLane="-191500071#1_0" departPos="5.10" departSpeed="11.58" departDelay="0.00" arrival="103.00" arrivalLane="-191500071#0_0" arrivalPos="31.51" arrivalSpeed="11.01" duration="11.00" routeLength="109.32" waitingTime="0.00" waitingCount="0" stopTime="0.00" timeLoss="0.63" rerouteNo="0" devices="tripinfo_92 emissions_92" vType="DEFAULT_VEHTYPE" speedFactor="0.83" vaporized="">
        <emissions CO_abs="81.63" CO2_abs="17445.28" HC_abs="0.55" PMx_abs="1.97" NOx_abs="6.14" fuel_abs="5655.56" electricity_abs="0.00"/>
    </tripinfo>
    <tripinfo id="78" depart="78.00" departLane="191500047#0_0" departPos="5.10" departSpeed="11.10" departDelay="0.00" arrival="104.00" arrivalLane="191500069_0" arrivalPos="122.74" arrivalSpeed="13.26" duration="26.00" routeLength="247.84" waitingTime="0.00" waitingCount="0" stopTime="0.00" timeLoss="6.46" rerouteNo="0" devices="tripinfo_78 emissions_78" vType="DEFAULT_VEHTYPE" speedFactor="1.01" vaporized="">
        <emissions CO_abs="504.33" CO2_abs="86743.68" HC_abs="3.34" PMx_abs="6.27" NOx_abs="28.44" fuel_abs="28120.98" electricity_abs="0.00"/>
    </tripinfo>
    <tripinfo id="62" depart="62.00" departLane="1074802276_0" departPos="5.10" departSpeed="13.89" departDelay="0.00" arrival="105.00" arrivalLane="192414633#1_0" arrivalPos="15.12" arrivalSpeed="13.01" duration="43.00" routeLength="427.05" waitingTime="0.00" waitingCount="0" stopTime="0.00" timeLoss="10.41" rerouteNo="0" devices="tripinfo_62 emissions_62" vType="DEFAULT_VEHTYPE" speedFactor="1.02" vaporized="">
        <emissions CO_abs="717.39" CO2_abs="122015.99" HC_abs="4.76" PMx_abs="9.25" NOx_abs="40.50" fuel_abs="39555.74" electricity_abs="0.00"/>
    </tripinfo>
    <tripinfo id="76" depart="76.00" departLane="191495001#0_1" departPos="5.10" departSpeed="27.78" departDelay="0.00" arrival="107.00" arrivalLane="192414600#0_0" arrivalPos="47.57" arrivalSpeed="13.42" duration="31.00" routeLength="393.83" waitingTime="0.00" waitingCount="0" stopTime="0.00" timeLoss="8.36" rerouteNo="0" devices="tripinfo_76 emissions_76" vType="DEFAULT_VEHTYPE" speedFactor="1.03" vaporized="">
        <emissions CO_abs="780.74" CO2_abs="93182.12" HC_abs="5.25" PMx_abs="8.52" NOx_abs="32.48" fuel_abs="30208.21" electricity_abs="0.00"/>
    </tripinfo>
    <tripinfo id="63" depart="63.00" departLane="191499993#0_0" departPos="5.10" departSpeed="7.80" departDelay="0.00" arrival="111.00" arrivalLane="-191500005#0_0" arrivalPos="124.44" arrivalSpeed="12.49" duration="48.00" routeLength="457.66" waitingTime="1.00" waitingCount="1" stopTime="0.00" timeLoss="13.61" rerouteNo="0" devices="tripinfo_63 emissions_63" vType="DEFAULT_VEHTYPE" speedFactor="0.99" vaporized="">
        <emissions CO_abs="743.55" CO2_abs="138883.16" HC_abs="4.93" PMx_abs="10.61" NOx_abs="46.55" fuel_abs="45023.85" electricity_abs="0.00"/>
    </tripinfo>
    <tripinfo id="66" depart="66.00" departLane="192414633#3_0" departPos="5.10" departSpeed="12.60" departDelay="0.00" arrival="111.00" arrivalLane="-191501568_0" arrivalPos="134.88" arrivalSpeed="11.52" duration="45.00" routeLength="431.22" waitingTime="0.00" waitingCount="0" stopTime="0.00" timeLoss="8.50" rerouteNo="0" devices="tripinfo_66 emissions_66" vType="DEFAULT_VEHTYPE" speedFactor="0.91" vaporized="">
        <emissions CO_abs="561.05" CO2_abs="113154.08" HC_abs="3.73" PMx_abs="9.40" NOx_abs="37.57" fuel_abs="36682.96" electricity_abs="0.00"/>
    </tripinfo>
    <tripinfo id="100" depart="100.00" departLane="192414527#1_0" departPos="5.10" departSpeed="7.67" departDelay="0.00" arrival="113.00" arrivalLane="192414633#1_0" arrivalPos="15.12" arrivalSpeed="9.74" duration="13.00" routeLength="116.77" waitingTime="0.00" waitingCount="0" stopTime="0.00" timeLoss="3.32" rerouteNo="0" devices="tripinfo_100 emissions_100" vType="DEFAULT_VEHTYPE" speedFactor="1.06" vaporized="">
        <emissions CO_abs="268.97" CO2_abs="43336.99" HC_abs="1.78" PMx_abs="2.67" NOx_abs="14.28" fuel_abs="14049.17" electricity_abs="0.00"/>
    </tripinfo>
    <tripinfo id="50" depart="50.00" departLane="1023336857#0_1" departPos="5.10" departSpeed="23.75" departDelay="0.00" arrival="114.00" arrivalLane="191495001#1_0" arrivalPos="520.87" arrivalSpeed="22.91" duration="64.00" routeLength="1218.09" waitingTime="0.00" waitingCount="0" stopTime="0.00" timeLoss="10.69" rerouteNo="0" devices="tripinfo_50 emissions_50" vType="DEFAULT_VEHTYPE" speedFactor="0.85" vaporized="">
        <emissions CO_abs="3630.36" CO2_abs="290496.65" HC_abs="24.28" PMx_abs="30.22" NOx_abs="113.74" fuel_abs="94174.14" electricity_abs="0.00"/>
    </tripinfo>
    <tripinfo id="103" depart="103.00" departLane="-908602608_0" departPos="5.10" departSpeed="13.23" departDelay="0.00" arrival="115.00" arrivalLane="191500005#1_0" arrivalPos="62.99" arrivalSpeed="13.14" duration="12.00" routeLength="104.53" waitingTime="0.00" waitingCount="0" stopTime="0.00" timeLoss="2.20" rerouteNo="0" devices="tripinfo_103 emissions_103" vType="DEFAULT_VEHTYPE" speedFactor="0.95" vaporized="">
        <emissions CO_abs="192.70" CO2_abs="35306.52" HC_abs="1.28" PMx_abs="2.95" NOx_abs="11.90" fuel_abs="11445.88" electricity_abs="0.00"/>
    </tripinfo>
    <tripinfo id="61" depart="61.00" departLane="1023336857#0_2" departPos="5.10" departSpeed="27.78" departDelay="0.00" arrival="118.00" arrivalLane="-192414552#1_0" arrivalPos="13.90" arrivalSpeed="14.28" duration="57.00" routeLength="858.07" waitingTime="0.00" waitingCount="0" stopTime="0.00" timeLoss="11.39" rerouteNo="0" devices="tripinfo_61 emissions_61" vType="DEFAULT_VEHTYPE" speedFactor="1.12" vaporized="">
        <emissions CO_abs="2475.77" CO2_abs="229344.77" HC_abs="16.59" PMx_abs="21.04" NOx_abs="85.05" fuel_abs="74349.80" electricity_abs="0.00"/>
    </tripinfo>
    <tripinfo id="65" depart="65.00" departLane="747481774_0" departPos="5.10" departSpeed="8.62" departDelay="0.00" arrival="118.00" arrivalLane="320263328#4_0" arrivalPos="164.71" arrivalSpeed="19.56" duration="53.00" routeLength="749.01" waitingTime="0.00" waitingCount="0" stopTime="0.00" timeLoss="12.77" rerouteNo="0" devices="tripinfo_65 emissions_65" vType="DEFAULT_VEHTYPE" speedFactor="0.88" vaporized="">
        <emissions CO_abs="2207.16" CO2_abs="221226.58" HC_abs="14.70" PMx_abs="20.82" NOx_abs="81.95" fuel_abs="71718.10" electricity_abs="0.00"/>
    </tripinfo>
    <tripinfo id="96" depart="96.00" departLane="-1074802276_0" departPos="5.10" departSpeed="13.89" departDelay="0.00" arrival="118.00" arrivalLane="191501601#1_0" arrivalPos="63.15" arrivalSpeed="14.01" duration="22.00" routeLength="191.29" waitingTime="0.00" waitingCount="0" stopTime="0.00" timeLoss="6.38" rerouteNo="0" devices="tripinfo_96 emissions_96" vType="DEFAULT_VEHTYPE" speedFactor="1.01" vaporized="">
        <emissions CO_abs="366.54" CO2_abs="63285.77" HC_abs="2.43" PMx_abs="4.38" NOx_abs="20.62" fuel_abs="20516.25" electricity_abs="0.00"/>
    </tripinfo>
    <tripinfo id="86" depart="86.00" departLane="908602607_0" departPos="5.10" departSpeed="13.89" departDelay="0.00" arrival="120.00" arrivalLane="908602608_0" arrivalPos="37.59" arrivalSpeed="12.81" duration="34.00" routeLength="340.01" waitingTime="0.00" waitingCount="0" stopTime="0.00" timeLoss="8.30" rerouteNo="0" devices="tripinfo_86 emissions_86" vType="DEFAULT_VEHTYPE" speedFactor="1.00" vaporized="">
        <emissions CO_abs="584.97" CO2_abs="93780.12" HC_abs="3.88" PMx_abs="7.04" NOx_abs="31.62" fuel_abs="30402.13" electricity_abs="0.00"/>
    </tripinfo>
    <tripinfo id="84" depart="84.00" departLane="-192414652#3_0" departPos="5.10" departSpeed="13.89" departDelay="0.00" arrival="121.00" arrivalLane="191501568_0" arrivalPos="134.88" arrivalSpeed="14.84" duration="37.00" routeLength="427.90" waitingTime="0.00" waitingCount="0" stopTime="0.00" timeLoss="7.93" rerouteNo="0" devices="tripinfo_84 emissions_84" vType="DEFAULT_VEHTYPE" speedFactor="1.15" vaporized="">
        <emissions CO_abs="923.55" CO2_abs="127080.84" HC_abs="6.13" PMx_abs="10.36" NOx_abs="43.91" fuel_abs="41197.70" electricity_abs="0.00"/>
    </tripinfo>
    <tripinfo id="107" depart="107.00" departLane="192414552#1_0" departPos="5.10" departSpeed="13.89" departDelay="0.00" arrival="122.00" arrivalLane="192414633#2_0" arrivalPos="21.96" arrivalSpeed="13.88" duration="15.00" routeLength="153.24" waitingTime="0.00" waitingCount="0" stopTime="0.00" timeLoss="2.50" rerouteNo="0" devices="tripinfo_107 emissions_107" vType="DEFAULT_VEHTYPE" speedFactor="1.03" vaporized="">
        <emissions CO_abs="291.19" CO2_abs="45908.78" HC_abs="1.93" PMx_abs="3.81" NOx_abs="15.52" fuel_abs="14882.95" electricity_abs="0.00"/>
    </tripinfo>
    <tripinfo id="81" depart="81.00" departLane="191495002#0_1" departPos="5.10" departSpeed="27.73" departDelay="0.00" arrival="124.00" arrivalLane="320263328#4_0" arrivalPos="164.71" arrivalSpeed="21.94" duration="43.00" routeLength="857.20" waitingTime="0.00" waitingCount="0" stopTime="0.00" timeLoss="7.85" rerouteNo="0" devices="tripinfo_81 emissions_81" vType="DEFAULT_VEHTYPE" speedFactor="1.00" vaporized="">
        <emissions CO_abs="2408.34" CO2_abs="188137.80" HC_abs="16.22" PMx_abs="21.68" NOx_abs="73.65" fuel_abs="60991.19" electricity_abs="0.00"/>
    </tripinfo>
    <tripinfo id="89" depart="89.00" departLane="191500054#0_0" departPos="5.10" departSpeed="13.89" departDelay="0.00" arrival="124.00" arrivalLane="908602608_0" arrivalPos="37.59" arrivalSpeed="13.49" duration="35.00" routeLength="352.41" waitingTime="0.00" waitingCount="0" stopTime="0.00" timeLoss="8.64" rerouteNo="0" devices="tripinfo_89 emissions_89" vType="DEFAULT_VEHTYPE" speedFactor="1.02" vaporized="">
        <emissions CO_abs="549.59" CO2_abs="97372.44" HC_abs="3.65" PMx_abs="8.06" NOx_abs="32.40" fuel_abs="31566.73" electricity_abs="0.00"/>
    </tripinfo>
    <tripinfo id="108" depart="108.00" departLane="192414600#0_0" departPos="5.10" departSpeed="12.04" departDelay="0.00" arrival="125.00" arrivalLane="-192414527#0_0" arrivalPos="17.03" arrivalSpeed="14.53" duration="17.00" routeLength="158.66" waitingTime="0.00" waitingCount="0" stopTime="0.00" timeLoss="4.67" rerouteNo="0" devices="tripinfo_108 emissions_108" vType="DEFAULT_VEHTYPE" speedFactor="1.06" vaporized="">
        <emissions CO_abs="456.93" CO2_abs="66493.93" HC_abs="3.02" PMx_abs="4.04" NOx_abs="22.15" fuel_abs="21556.27" electricity_abs="0.00"/>
    </tripinfo>
    <tripinfo id="25" depart="25.00" departLane="908602607_0" departPos="5.10" departSpeed="12.12" departDelay="0.00" arrival="130.00" arrivalLane="191494999#1_0" arrivalPos="448.23" arrivalSpeed="23.01" duration="105.00" routeLength="1003.41" waitingTime="21.00" waitingCount="2" stopTime="0.00" timeLoss="49.85" rerouteNo="0" devices="tripinfo_25 emissions_25" vType="DEFAULT_VEHTYPE" speedFactor="0.87" vaporized="">
        <emissions CO_abs="2909.80" CO2_abs="344839.81" HC_abs="19.40" PMx_abs="26.32" NOx_abs="126.63" fuel_abs="111791.79" electricity_abs="0.00"/>
    </tripinfo>
    <tripinfo id="93" depart="93.00" departLane="191501580#1_0" departPos="1.62" departSpeed="0.00" departDelay="0.00" arrival="130.00" arrivalLane="-191501601#1_0" arrivalPos="63.17" arrivalSpeed="12.65" duration="37.00" routeLength="289.81" waitingTime="0.00" waitingCount="0" stopTime="0.00" timeLoss="11.61" rerouteNo="0" devices="tripinfo_93 emissions_93" vType="DEFAULT_VEHTYPE" speedFactor="0.92" vaporized="">
        <emissions CO_abs="493.30" CO2_abs="104710.60" HC_abs="3.26" PMx_abs="6.48" NOx_abs="33.04" fuel_abs="33945.48" electricity_abs="0.00"/>
    </tripinfo>
    <tripinfo id="104" depart="105.00" departLane="192414600#0_0" departPos="5.10" departSpeed="11.27" departDelay="1.00" arrival="130.00" arrivalLane="192414652#2_0" arrivalPos="15.17" arrivalSpeed="10.64" duration="25.00" routeLength="160.08" waitingTime="1.00" waitingCount="1" stopTime="0.00" timeLoss="8.72" rerouteNo="0" devices="tripinfo_104 emissions_104" vType="DEFAULT_VEHTYPE" speedFactor="0.89" vaporized="">
        <emissions CO_abs="272.66" CO2_abs="65188.16" HC_abs="1.80" PMx_abs="3.93" NOx_abs="21.36" fuel_abs="21133.00" electricity_abs="0.00"/>
    </tripinfo>
    <tripinfo id="48" depart="48.00" departLane="191495002#2_0" departPos="5.10" departSpeed="24.36" departDelay="0.00" arrival="131.00" arrivalLane="191500119_0" arrivalPos="375.22" arrivalSpeed="19.22" duration="83.00" routeLength="798.44" waitingTime="28.00" waitingCount="2" stopTime="0.00" timeLoss="42.62" rerouteNo="0" devices="tripinfo_48 emissions_48" vType="DEFAULT_VEHTYPE" speedFactor="0.88" vaporized="">