<?xml version="1.0" encoding="UTF-8"?>

<!-- generated on 2026-06-19T12:10:26.030402+05:30 by Eclipse SUMO GUI 1.27.0
<sumoConfiguration xmlns:xsi="http://www.w3.org/2001/XMLSchema-instance" xsi:noNamespaceSchemaLocation="http://sumo.dlr.de/xsd/sumoConfiguration.xsd">

    <input>
        <net-file value="C:\Users\Lenovo\Downloads\AI_Metro_Digital_Twin\sumo\../osm/indore.net.xml"/>
        <route-files value="C:\Users\Lenovo\Downloads\AI_Metro_Digital_Twin\sumo\../data/raw/peak_routes.rou.xml"/>
    </input>

    <output>
        <emission-output value="C:\Users\Lenovo\Downloads\AI_Metro_Digital_Twin\sumo\../data/simulation_output/peak_emission.xml"/>
        <summary-output value="C:\Users\Lenovo\Downloads\AI_Metro_Digital_Twin\sumo\../data/simulation_output/peak_summary.xml"/>
        <tripinfo-output value="C:\Users\Lenovo\Downloads\AI_Metro_Digital_Twin\sumo\../data/simulation_output/peak_tripinfo.xml"/>
    </output>

    <time>
        <begin value="0"/>
        <end value="3600"/>
    </time>

</sumoConfiguration>
-->

<tripinfos xmlns:xsi="http://www.w3.org/2001/XMLSchema-instance" xsi:noNamespaceSchemaLocation="http://sumo.dlr.de/xsd/tripinfo_file.xsd">
    <tripinfo id="1" depart="1.00" departLane="-192414552#0_0" departPos="5.10" departSpeed="5.68" departDelay="0.00" arrival="21.00" arrivalLane="-192414437_0" arrivalPos="47.79" arrivalSpeed="12.43" duration="20.00" routeLength="144.85" waitingTime="0.00" waitingCount="0" stopTime="0.00" timeLoss="5.93" rerouteNo="0" devices="tripinfo_1 emissions_1" vType="DEFAULT_VEHTYPE" speedFactor="0.94" vaporized="">
        <emissions CO_abs="290.24" CO2_abs="60159.39" HC_abs="1.92" PMx_abs="3.78" NOx_abs="19.39" fuel_abs="19502.77" electricity_abs="0.00"/>
    </tripinfo>
    <tripinfo id="19" depart="19.00" departLane="-192414633#2_0" departPos="5.10" departSpeed="13.89" departDelay="0.00" arrival="34.00" arrivalLane="-192414527#1_0" arrivalPos="15.94" arrivalSpeed="12.16" duration="15.00" routeLength="142.92" waitingTime="0.00" waitingCount="0" stopTime="0.00" timeLoss="4.00" rerouteNo="0" devices="tripinfo_19 emissions_19" vType="DEFAULT_VEHTYPE" speedFactor="1.16" vaporized="">
        <emissions CO_abs="431.13" CO2_abs="58522.88" HC_abs="2.85" PMx_abs="3.47" NOx_abs="19.76" fuel_abs="18972.17" electricity_abs="0.00"/>
    </tripinfo>
    <tripinfo id="20" depart="20.00" departLane="192414652#1_0" departPos="5.10" departSpeed="7.28" departDelay="0.00" arrival="40.00" arrivalLane="-192414633#1_0" arrivalPos="15.12" arrivalSpeed="13.57" duration="20.00" routeLength="141.64" waitingTime="0.00" waitingCount="0" stopTime="0.00" timeLoss="8.80" rerouteNo="0" devices="tripinfo_20 emissions_20" vType="DEFAULT_VEHTYPE" speedFactor="1.02" vaporized="">
        <emissions CO_abs="355.59" CO2_abs="71222.21" HC_abs="2.35" PMx_abs="3.96" NOx_abs="22.44" fuel_abs="23089.06" electricity_abs="0.00"/>
    </tripinfo>
    <tripinfo id="11" depart="11.00" departLane="-192414498#0_0" departPos="3.92" departSpeed="0.00" departDelay="0.00" arrival="44.00" arrivalLane="-192414552#2_0" arrivalPos="61.23" arrivalSpeed="13.04" duration="33.00" routeLength="341.71" waitingTime="0.00" waitingCount="0" stopTime="0.00" timeLoss="7.30" rerouteNo="0" devices="tripinfo_11 emissions_11" vType="DEFAULT_VEHTYPE" speedFactor="1.03" vaporized="">
        <emissions CO_abs="684.31" CO2_abs="112855.14" HC_abs="4.54" PMx_abs="8.13" NOx_abs="37.05" fuel_abs="36585.84" electricity_abs="0.00"/>
    </tripinfo>
    <tripinfo id="18" depart="18.00" departLane="192414633#0_0" departPos="5.10" departSpeed="8.15" departDelay="0.00" arrival="44.00" arrivalLane="192414479_0" arrivalPos="51.32" arrivalSpeed="12.40" duration="26.00" routeLength="172.82" waitingTime="2.00" waitingCount="1" stopTime="0.00" timeLoss="10.66" rerouteNo="0" devices="tripinfo_18 emissions_18" vType="DEFAULT_VEHTYPE" speedFactor="0.94" vaporized="">
        <emissions CO_abs="345.32" CO2_abs="71926.23" HC_abs="2.28" PMx_abs="3.90" NOx_abs="22.83" fuel_abs="23317.33" electricity_abs="0.00"/>
    </tripinfo>
    <tripinfo id="5" depart="5.00" departLane="192414552#0_0" departPos="5.10" departSpeed="5.68" departDelay="0.00" arrival="47.00" arrivalLane="-1074802276_0" arrivalPos="56.73" arrivalSpeed="11.01" duration="42.00" routeLength="347.12" waitingTime="0.00" waitingCount="0" stopTime="0.00" timeLoss="8.18" rerouteNo="0" devices="tripinfo_5 emissions_5" vType="DEFAULT_VEHTYPE" speedFactor="0.83" vaporized="">
        <emissions CO_abs="504.74" CO2_abs="110325.10" HC_abs="3.34" PMx_abs="7.64" NOx_abs="35.40" fuel_abs="35765.75" electricity_abs="0.00"/>
    </tripinfo>
    <tripinfo id="9" depart="9.00" departLane="191495002#0_1" departPos="5.10" departSpeed="23.80" departDelay="0.00" arrival="49.00" arrivalLane="747481774_0" arrivalPos="17.84" arrivalSpeed="9.31" duration="40.00" routeLength="631.04" waitingTime="0.00" waitingCount="0" stopTime="0.00" timeLoss="10.97" rerouteNo="0" devices="tripinfo_9 emissions_9" vType="DEFAULT_VEHTYPE" speedFactor="0.86" vaporized="">
        <emissions CO_abs="991.32" CO2_abs="104182.23" HC_abs="6.76" PMx_abs="13.80" NOx_abs="38.44" fuel_abs="33774.44" electricity_abs="0.00"/>
    </tripinfo>
    <tripinfo id="26" depart="26.00" departLane="-191500069_0" departPos="5.10" departSpeed="12.74" departDelay="0.00" arrival="49.00" arrivalLane="-191499993#2_0" arrivalPos="30.03" arrivalSpeed="11.84" duration="23.00" routeLength="207.05" waitingTime="0.00" waitingCount="0" stopTime="0.00" timeLoss="4.59" rerouteNo="0" devices="tripinfo_26 emissions_26" vType="DEFAULT_VEHTYPE" speedFactor="0.92" vaporized="">
        <emissions CO_abs="290.84" CO2_abs="54648.01" HC_abs="1.92" PMx_abs="3.91" NOx_abs="17.70" fuel_abs="17716.05" electricity_abs="0.00"/>
    </tripinfo>
    <tripinfo id="27" depart="27.00" departLane="-191500071#1_0" departPos="5.10" departSpeed="13.18" departDelay="0.00" arrival="49.00" arrivalLane="191500056#0_0" arrivalPos="30.86" arrivalSpeed="11.84" duration="22.00" routeLength="184.75" waitingTime="0.00" waitingCount="0" stopTime="0.00" timeLoss="5.99" rerouteNo="0" devices="tripinfo_27 emissions_27" vType="DEFAULT_VEHTYPE" speedFactor="0.95" vaporized="">
        <emissions CO_abs="227.81" CO2_abs="50227.68" HC_abs="1.51" PMx_abs="3.49" NOx_abs="16.26" fuel_abs="16283.07" electricity_abs="0.00"/>
    </tripinfo>
    <tripinfo id="7" depart="7.00" departLane="-191500069_0" departPos="5.10" departSpeed="12.31" departDelay="0.00" arrival="52.00" arrivalLane="-191500056#1_0" arrivalPos="104.90" arrivalSpeed="11.26" duration="45.00" routeLength="320.98" waitingTime="6.00" waitingCount="1" stopTime="0.00" timeLoss="16.00" rerouteNo="0" devices="tripinfo_7 emissions_7" vType="DEFAULT_VEHTYPE" speedFactor="0.89" vaporized="">
        <emissions CO_abs="362.20" CO2_abs="100324.23" HC_abs="2.41" PMx_abs="6.93" NOx_abs="33.56" fuel_abs="32523.72" electricity_abs="0.00"/>
    </tripinfo>
    <tripinfo id="17" depart="17.00" departLane="-191501580#1_0" departPos="1.62" departSpeed="13.08" departDelay="0.00" arrival="52.00" arrivalLane="191501580#2_0" arrivalPos="55.35" arrivalSpeed="13.02" duration="35.00" routeLength="388.41" waitingTime="0.00" waitingCount="0" stopTime="0.00" timeLoss="3.72" rerouteNo="0" devices="tripinfo_17 emissions_17" vType="DEFAULT_VEHTYPE" speedFactor="0.94" vaporized="">
        <emissions CO_abs="449.60" CO2_abs="79726.86" HC_abs="3.00" PMx_abs="7.89" NOx_abs="27.36" fuel_abs="25846.37" electricity_abs="0.00"/>
    </tripinfo>
    <tripinfo id="34" depart="34.00" departLane="192414652#0_0" departPos="5.10" departSpeed="13.04" departDelay="0.00" arrival="53.00" arrivalLane="-192414527#0_0" arrivalPos="17.03" arrivalSpeed="12.89" duration="19.00" routeLength="139.24" waitingTime="0.00" waitingCount="0" stopTime="0.00" timeLoss="6.41" rerouteNo="0" devices="tripinfo_34 emissions_34" vType="DEFAULT_VEHTYPE" speedFactor="0.99" vaporized="">
        <emissions CO_abs="276.76" CO2_abs="55118.14" HC_abs="1.83" PMx_abs="3.29" NOx_abs="17.62" fuel_abs="17868.43" electricity_abs="0.00"/>
    </tripinfo>
    <tripinfo id="41" depart="42.00" departLane="192414652#1_0" departPos="5.10" departSpeed="7.28" departDelay="1.00" arrival="56.00" arrivalLane="192414552#1_0" arrivalPos="13.90" arrivalSpeed="10.78" duration="14.00" routeLength="100.29" waitingTime="0.00" waitingCount="0" stopTime="0.00" timeLoss="4.33" rerouteNo="0" devices="tripinfo_41 emissions_41" vType="DEFAULT_VEHTYPE" speedFactor="0.96" vaporized="">
        <emissions CO_abs="252.53" CO2_abs="50685.02" HC_abs="1.67" PMx_abs="2.83" NOx_abs="15.89" fuel_abs="16431.27" electricity_abs="0.00"/>
    </tripinfo>
    <tripinfo id="6" depart="6.00" departLane="-192414652#2_0" departPos="5.10" departSpeed="13.89" departDelay="0.00" arrival="58.00" arrivalLane="-191501568_0" arrivalPos="134.88" arrivalSpeed="14.52" duration="52.00" routeLength="539.53" waitingTime="0.00" waitingCount="0" stopTime="0.00" timeLoss="10.73" rerouteNo="0" devices="tripinfo_6 emissions_6" vType="DEFAULT_VEHTYPE" speedFactor="1.05" vaporized="">
        <emissions CO_abs="1050.11" CO2_abs="162333.39" HC_abs="6.96" PMx_abs="12.30" NOx_abs="54.53" fuel_abs="52626.01" electricity_abs="0.00"/>
    </tripinfo>
    <tripinfo id="40" depart="40.00" departLane="-1074802276_0" departPos="5.10" departSpeed="13.89" departDelay="0.00" arrival="61.00" arrivalLane="-192414633#2_0" arrivalPos="21.96" arrivalSpeed="13.47" duration="21.00" routeLength="253.42" waitingTime="0.00" waitingCount="0" stopTime="0.00" timeLoss="2.23" rerouteNo="0" devices="tripinfo_40 emissions_40" vType="DEFAULT_VEHTYPE" speedFactor="1.03" vaporized="">
        <emissions CO_abs="365.44" CO2_abs="53991.77" HC_abs="2.43" PMx_abs="5.28" NOx_abs="18.90" fuel_abs="17503.39" electricity_abs="0.00"/>
    </tripinfo>
    <tripinfo id="30" depart="32.00" departLane="467718343#1_0" departPos="5.10" departSpeed="6.09" departDelay="2.00" arrival="62.00" arrivalLane="192414633#1_0" arrivalPos="15.12" arrivalSpeed="14.35" duration="30.00" routeLength="345.02" waitingTime="0.00" waitingCount="0" stopTime="0.00" timeLoss="7.08" rerouteNo="0" devices="tripinfo_30 emissions_30" vType="DEFAULT_VEHTYPE" speedFactor="1.18" vaporized="">
        <emissions CO_abs="968.60" CO2_abs="124416.59" HC_abs="6.41" PMx_abs="8.55" NOx_abs="42.76" fuel_abs="40333.87" electricity_abs="0.00"/>
    </tripinfo>
    <tripinfo id="28" depart="28.00" departLane="192414517_0" departPos="5.10" departSpeed="13.89" departDelay="0.00" arrival="63.00" arrivalLane="-467718343#1_0" arrivalPos="10.47" arrivalSpeed="7.57" duration="35.00" routeLength="333.10" waitingTime="0.00" waitingCount="0" stopTime="0.00" timeLoss="11.17" rerouteNo="0" devices="tripinfo_28 emissions_28" vType="DEFAULT_VEHTYPE" speedFactor="1.13" vaporized="">
        <emissions CO_abs="666.65" CO2_abs="109019.82" HC_abs="4.42" PMx_abs="7.62" NOx_abs="36.32" fuel_abs="35342.47" electricity_abs="0.00"/>
    </tripinfo>
    <tripinfo id="52" depart="52.00" departLane="-191500054#1_0" departPos="5.10" departSpeed="13.89" departDelay="0.00" arrival="64.00" arrivalLane="191500056#0_0" arrivalPos="30.86" arrivalSpeed="12.96" duration="12.00" routeLength="108.34" waitingTime="0.00" waitingCount="0" stopTime="0.00" timeLoss="3.12" rerouteNo="0" devices="tripinfo_52 emissions_52" vType="DEFAULT_VEHTYPE" speedFactor="1.02" vaporized="">
        <emissions CO_abs="194.52" CO2_abs="34440.20" HC_abs="1.29" PMx_abs="2.51" NOx_abs="11.51" fuel_abs="11165.01" electricity_abs="0.00"/>
    </tripinfo>
    <tripinfo id="10" depart="10.00" departLane="-320263328#1_0" departPos="5.10" departSpeed="22.22" departDelay="0.00" arrival="65.00" arrivalLane="191495002#2_1" arrivalPos="190.02" arrivalSpeed="27.72" duration="55.00" routeLength="664.39" waitingTime="7.00" waitingCount="1" stopTime="0.00" timeLoss="26.59" rerouteNo="0" devices="tripinfo_10 emissions_10" vType="DEFAULT_VEHTYPE" speedFactor="1.09" vaporized="">
        <emissions CO_abs="3316.79" CO2_abs="281775.98" HC_abs="22.02" PMx_abs="20.54" NOx_abs="109.68" fuel_abs="91346.64" electricity_abs="0.00"/>
    </tripinfo>
    <tripinfo id="39" depart="39.00" departLane="192414498#0_0" departPos="3.92" departSpeed="0.00" departDelay="0.00" arrival="69.00" arrivalLane="191495001#1_1" arrivalPos="520.87" arrivalSpeed="23.76" duration="30.00" routeLength="537.40" waitingTime="0.00" waitingCount="0" stopTime="0.00" timeLoss="6.36" rerouteNo="0" devices="tripinfo_39 emissions_39" vType="DEFAULT_VEHTYPE" speedFactor="0.90" vaporized="">
        <emissions CO_abs="1979.34" CO2_abs="165410.49" HC_abs="13.24" PMx_abs="15.76" NOx_abs="63.44" fuel_abs="53623.17" electricity_abs="0.00"/>
    </tripinfo>
    <tripinfo id="22" depart="22.00" departLane="-192414535_0" departPos="5.10" departSpeed="13.54" departDelay="0.00" arrival="71.00" arrivalLane="-192414498#1_0" arrivalPos="143.96" arrivalSpeed="12.55" duration="49.00" routeLength="458.19" waitingTime="2.00" waitingCount="1" stopTime="0.00" timeLoss="12.87" rerouteNo="0" devices="tripinfo_22 emissions_22" vType="DEFAULT_VEHTYPE" speedFactor="0.97" vaporized="">
        <emissions CO_abs="604.28" CO2_abs="125501.42" HC_abs="4.02" PMx_abs="10.10" NOx_abs="41.90" fuel_abs="40685.71" electricity_abs="0.00"/>
    </tripinfo>
    <tripinfo id="44" depart="44.00" departLane="-192414535_0" departPos="5.10" departSpeed="13.89" departDelay="0.00" arrival="74.00" arrivalLane="192414633#3_0" arrivalPos="20.35" arrivalSpeed="10.90" duration="30.00" routeLength="297.83" waitingTime="0.00" waitingCount="0" stopTime="0.00" timeLoss="8.10" rerouteNo="0" devices="tripinfo_44 emissions_44" vType="DEFAULT_VEHTYPE" speedFactor="1.04" vaporized="">
        <emissions CO_abs="454.66" CO2_abs="83901.52" HC_abs="3.02" PMx_abs="6.51" NOx_abs="28.03" fuel_abs="27199.58" electricity_abs="0.00"/>
    </tripinfo>
    <tripinfo id="53" depart="54.00" departLane="-192414498#0_0" departPos="3.92" departSpeed="0.00" departDelay="1.00" arrival="76.00" arrivalLane="192414652#4_0" arrivalPos="19.41" arrivalSpeed="9.76" duration="22.00" routeLength="107.64" waitingTime="4.00" waitingCount="1" stopTime="0.00" timeLoss="12.05" rerouteNo="0" devices="tripinfo_53 emissions_53" vType="DEFAULT_VEHTYPE" speedFactor="1.10" vaporized="">
        <emissions CO_abs="241.46" CO2_abs="68013.32" HC_abs="1.59" PMx_abs="2.84" NOx_abs="21.12" fuel_abs="22048.81" electricity_abs="0.00"/>
    </tripinfo>
    <tripinfo id="58" depart="58.00" departLane="192414633#2_0" departPos="5.10" departSpeed="13.89" departDelay="0.00" arrival="76.00" arrivalLane="-192414498#1_0" arrivalPos="143.96" arrivalSpeed="13.66" duration="18.00" routeLength="214.53" waitingTime="0.00" waitingCount="0" stopTime="0.00" timeLoss="2.60" rerouteNo="0" devices="tripinfo_58 emissions_58" vType="DEFAULT_VEHTYPE" speedFactor="1.02" vaporized="">
        <emissions CO_abs="337.76" CO2_abs="52299.92" HC_abs="2.25" PMx_abs="4.72" NOx_abs="17.90" fuel_abs="16954.88" electricity_abs="0.00"/>
    </tripinfo>
    <tripinfo id="24" depart="24.00" departLane="-320263328#4_0" departPos="5.10" departSpeed="18.35" departDelay="0.00" arrival="78.00" arrivalLane="-191618091#3_0" arrivalPos="84.29" arrivalSpeed="11.26" duration="54.00" routeLength="682.20" waitingTime="0.00" waitingCount="0" stopTime="0.00" timeLoss="13.13" rerouteNo="0" devices="tripinfo_24 emissions_24" vType="DEFAULT_VEHTYPE" speedFactor="0.83" vaporized="">
        <emissions CO_abs="1543.75" CO2_abs="180316.96" HC_abs="10.28" PMx_abs="16.76" NOx_abs="65.74" fuel_abs="58456.04" electricity_abs="0.00"/>
    </tripinfo>
    <tripinfo id="31" depart="31.00" departLane="-1128414347_0" departPos="5.10" departSpeed="13.89" departDelay="0.00" arrival="81.00" arrivalLane="191501580#1_0" arrivalPos="1.62" arrivalSpeed="15.00" duration="50.00" routeLength="424.86" waitingTime="4.00" waitingCount="1" stopTime="0.00" timeLoss="21.57" rerouteNo="0" devices="tripinfo_31 emissions_31" vType="DEFAULT_VEHTYPE" speedFactor="1.15" vaporized="">
        <emissions CO_abs="889.89" CO2_abs="153762.75" HC_abs="5.91" PMx_abs="10.79" NOx_abs="51.52" fuel_abs="49847.52" electricity_abs="0.00"/>
    </tripinfo>
    <tripinfo id="42" depart="45.00" departLane="-191500056#1_0" departPos="5.10" departSpeed="11.28" departDelay="3.00" arrival="82.00" arrivalLane="1264769829_0" arrivalPos="0.20" arrivalSpeed="3.43" duration="37.00" routeLength="406.20" waitingTime="0.00" waitingCount="0" stopTime="0.00" timeLoss="10.10" rerouteNo="0" devices="tripinfo_42 emissions_42" vType="DEFAULT_VEHTYPE" speedFactor="1.09" vaporized="">
        <emissions CO_abs="1151.86" CO2_abs="134958.58" HC_abs="7.62" PMx_abs="9.62" NOx_abs="47.99" fuel_abs="43751.41" electricity_abs="0.00"/>
    </tripinfo>
    <tripinfo id="66" depart="66.00" departLane="1074802276_0" departPos="5.10" departSpeed="12.60" departDelay="0.00" arrival="82.00" arrivalLane="-467718343#1_0" arrivalPos="10.47" arrivalSpeed="11.52" duration="16.00" routeLength="155.90" waitingTime="0.00" waitingCount="0" stopTime="0.00" timeLoss="2.46" rerouteNo="0" devices="tripinfo_66 emissions_66" vType="DEFAULT_VEHTYPE" speedFactor="0.91" vaporized="">
        <emissions CO_abs="192.84" CO2_abs="35070.45" HC_abs="1.28" PMx_abs="2.57" NOx_abs="11.58" fuel_abs="11369.32" electricity_abs="0.00"/>
    </tripinfo>
    <tripinfo id="55" depart="55.00" departLane="192414552#0_0" departPos="5.10" departSpeed="5.68" departDelay="0.00" arrival="84.00" arrivalLane="-191501601#1_0" arrivalPos="63.17" arrivalSpeed="12.63" duration="29.00" routeLength="279.11" waitingTime="0.00" waitingCount="0" stopTime="0.00" timeLoss="6.21" rerouteNo="0" devices="tripinfo_55 emissions_55" vType="DEFAULT_VEHTYPE" speedFactor="1.00" vaporized="">
        <emissions CO_abs="579.62" CO2_abs="99262.06" HC_abs="3.84" PMx_abs="7.12" NOx_abs="32.77" fuel_abs="32179.26" electricity_abs="0.00"/>
    </tripinfo>
    <tripinfo id="59" depart="59.00" departLane="-191501601#1_0" departPos="5.10" departSpeed="13.21" departDelay="0.00" arrival="86.00" arrivalLane="1023336857#1_1" arrivalPos="0.20" arrivalSpeed="4.43" duration="27.00" routeLength="299.55" waitingTime="0.00" waitingCount="0" stopTime="0.00" timeLoss="2.71" rerouteNo="0" devices="tripinfo_59 emissions_59" vType="DEFAULT_VEHTYPE" speedFactor="0.97" vaporized="">
        <emissions CO_abs="225.22" CO2_abs="45606.65" HC_abs="1.52" PMx_abs="6.10" NOx_abs="16.38" fuel_abs="14785.18" electricity_abs="0.00"/>
    </tripinfo>
    <tripinfo id="48" depart="48.00" departLane="908602607_0" departPos="5.10" departSpeed="12.18" departDelay="0.00" arrival="88.00" arrivalLane="191500071#0_0" arrivalPos="31.51" arrivalSpeed="11.53" duration="40.00" routeLength="341.07" waitingTime="0.00" waitingCount="0" stopTime="0.00" timeLoss="8.56" rerouteNo="0" devices="tripinfo_48 emissions_48" vType="DEFAULT_VEHTYPE" speedFactor="0.88" vaporized="">
        <emissions CO_abs="420.78" CO2_abs="99605.06" HC_abs="2.79" PMx_abs="8.13" NOx_abs="32.77" fuel_abs="32290.58" electricity_abs="0.00"/>
    </tripinfo>
    <tripinfo id="15" depart="15.00" departLane="-320263328#0_0" departPos="5.10" departSpeed="20.59" departDelay="0.00" arrival="89.00" arrivalLane="-191618091#2_0" arrivalPos="46.42" arrivalSpeed="12.15" duration="74.00" routeLength="859.32" waitingTime="3.00" waitingCount="1" stopTime="0.00" timeLoss="26.41" rerouteNo="0" devices="tripinfo_15 emissions_15" vType="DEFAULT_VEHTYPE" speedFactor="0.93" vaporized="">
        <emissions CO_abs="2535.47" CO2_abs="279751.99" HC_abs="16.83" PMx_abs="21.32" NOx_abs="101.82" fuel_abs="90691.04" electricity_abs="0.00"/>
    </tripinfo>
    <tripinfo id="8" depart="8.00" departLane="192414552#0_0" departPos="5.10" departSpeed="7.14" departDelay="0.00" arrival="91.00" arrivalLane="191501601#0_0" arrivalPos="212.32" arrivalSpeed="11.98" duration="83.00" routeLength="720.18" waitingTime="7.00" waitingCount="2" stopTime="0.00" timeLoss="24.52" rerouteNo="0" devices="tripinfo_8 emissions_8" vType="DEFAULT_VEHTYPE" speedFactor="0.94" vaporized="">
        <emissions CO_abs="1050.16" CO2_abs="215857.99" HC_abs="6.97" PMx_abs="16.18" NOx_abs="72.42" fuel_abs="69978.06" electricity_abs="0.00"/>
    </tripinfo>
    <tripinfo id="63" depart="63.00" departLane="192414633#1_0" departPos="5.10" departSpeed="13.71" departDelay="0.00" arrival="91.00" arrivalLane="-191501580#0_0" arrivalPos="146.69" arrivalSpeed="13.57" duration="28.00" routeLength="315.25" waitingTime="0.00" waitingCount="0" stopTime="0.00" timeLoss="3.58" rerouteNo="0" devices="tripinfo_63 emissions_63" vType="DEFAULT_VEHTYPE" speedFactor="0.99" vaporized="">
        <emissions CO_abs="399.17" CO2_abs="70272.37" HC_abs="2.66" PMx_abs="7.29" NOx_abs="24.32" fuel_abs="22781.38" electricity_abs="0.00"/>
    </tripinfo>
    <tripinfo id="38" depart="38.00" departLane="192414437_0" departPos="5.10" departSpeed="13.89" departDelay="0.00" arrival="93.00" arrivalLane="191495001#2_1" arrivalPos="48.80" arrivalSpeed="24.32" duration="55.00" routeLength="770.24" waitingTime="3.00" waitingCount="1" stopTime="0.00" timeLoss="21.16" rerouteNo="0" devices="tripinfo_38 emissions_38" vType="DEFAULT_VEHTYPE" speedFactor="1.10" vaporized="">
        <emissions CO_abs="3892.36" CO2_abs="307237.90" HC_abs="25.91" PMx_abs="24.21" NOx_abs="121.14" fuel_abs="99600.80" electricity_abs="0.00"/>
    </tripinfo>
    <tripinfo id="54" depart="54.00" departLane="320263328#3_0" departPos="5.10" departSpeed="22.22" departDelay="0.00" arrival="95.00" arrivalLane="191495039#1_1" arrivalPos="195.92" arrivalSpeed="27.77" duration="41.00" routeLength="620.06" waitingTime="0.00" waitingCount="0" stopTime="0.00" timeLoss="12.93" rerouteNo="0" devices="tripinfo_54 emissions_54" vType="DEFAULT_VEHTYPE" speedFactor="1.00" vaporized="">
        <emissions CO_abs="2874.45" CO2_abs="237205.96" HC_abs="19.12" PMx_abs="19.34" NOx_abs="91.55" fuel_abs="76897.90" electricity_abs="0.00"/>
    </tripinfo>
    <tripinfo id="65" depart="65.00" departLane="-192414535_0" departPos="5.10" departSpeed="12.26" departDelay="0.00" arrival="96.00" arrivalLane="192414498#0_0" arrivalPos="3.92" arrivalSpeed="4.35" duration="31.00" routeLength="165.04" waitingTime="5.00" waitingCount="1" stopTime="0.00" timeLoss="13.92" rerouteNo="0" devices="tripinfo_65 emissions_65" vType="DEFAULT_VEHTYPE" speedFactor="0.88" vaporized="">
        <emissions CO_abs="121.19" CO2_abs="54860.88" HC_abs="0.81" PMx_abs="2.89" NOx_abs="18.07" fuel_abs="17785.18" electricity_abs="0.00"/>
    </tripinfo>
    <tripinfo id="82" depart="82.00" departLane="192414652#1_0" departPos="5.10" departSpeed="7.28" departDelay="0.00" arrival="99.00" arrivalLane="192414652#0_0" arrivalPos="30.72" arrivalSpeed="11.10" duration="17.00" routeLength="110.46" waitingTime="0.00" waitingCount="0" stopTime="0.00" timeLoss="7.04" rerouteNo="0" devices="tripinfo_82 emissions_82" vType="DEFAULT_VEHTYPE" speedFactor="1.02" vaporized="">
        <emissions CO_abs="277.25" CO2_abs="58587.33" HC_abs="1.83" PMx_abs="3.05" NOx_abs="18.19" fuel_abs="18993.04" electricity_abs="0.00"/>
    </tripinfo>
    <tripinfo id="74" depart="74.00" departLane="191500005#1_0" departPos="5.10" departSpeed="12.60" departDelay="0.00" arrival="105.00" arrivalLane="191500054#1_0" arrivalPos="73.54" arrivalSpeed="12.29" duration="31.00" routeLength="267.43" waitingTime="0.00" waitingCount="0" stopTime="0.00" timeLoss="8.82" rerouteNo="0" devices="tripinfo_74 emissions_74" vType="DEFAULT_VEHTYPE" speedFactor="0.96" vaporized="">
        <emissions CO_abs="456.23" CO2_abs="86860.79" HC_abs="3.02" PMx_abs="5.93" NOx_abs="27.98" fuel_abs="28158.92" electricity_abs="0.00"/>
    </tripinfo>
    <tripinfo id="69" depart="69.00" departLane="-191500005#1_0" departPos="5.10" departSpeed="13.89" departDelay="0.00" arrival="106.00" arrivalLane="191499993#1_0" arrivalPos="26.92" arrivalSpeed="13.61" duration="37.00" routeLength="401.29" waitingTime="0.00" waitingCount="0" stopTime="0.00" timeLoss="11.07" rerouteNo="0" devices="tripinfo_69 emissions_69" vType="DEFAULT_VEHTYPE" speedFactor="1.02" vaporized="">
        <emissions CO_abs="1290.88" CO2_abs="152669.43" HC_abs="8.55" PMx_abs="10.64" NOx_abs="53.80" fuel_abs="49492.90" electricity_abs="0.00"/>
    </tripinfo>
    <tripinfo id="25" depart="25.00" departLane="908602607_0" departPos="5.10" departSpeed="12.12" departDelay="0.00" arrival="107.00" arrivalLane="191494999#0_0" arrivalPos="62.73" arrivalSpeed="18.11" duration="82.00" routeLength="539.09" waitingTime="23.00" waitingCount="1" stopTime="0.00" timeLoss="46.24" rerouteNo="0" devices="tripinfo_25 emissions_25" vType="DEFAULT_VEHTYPE" speedFactor="0.87" vaporized="">
        <emissions CO_abs="1530.14" CO2_abs="241780.91" HC_abs="10.12" PMx_abs="13.22" NOx_abs="85.46" fuel_abs="78381.78" electricity_abs="0.00"/>
    </tripinfo>
    <tripinfo id="72" depart="72.00" departLane="191500005#1_0" departPos="5.10" departSpeed="13.06" departDelay="0.00" arrival="110.00" arrivalLane="191500089#2_0" arrivalPos="30.94" arrivalSpeed="12.23" duration="38.00" routeLength="418.88" waitingTime="0.00" waitingCount="0" stopTime="0.00" timeLoss="9.32" rerouteNo="0" devices="tripinfo_72 emissions_72" vType="DEFAULT_VEHTYPE" speedFactor="0.94" vaporized="">
        <emissions CO_abs="1019.44" CO2_abs="125928.50" HC_abs="6.75" PMx_abs="9.12" NOx_abs="44.29" fuel_abs="40824.01" electricity_abs="0.00"/>
    </tripinfo>
    <tripinfo id="61" depart="61.00" departLane="1023336857#1_1" departPos="0.20" departSpeed="0.00" departDelay="0.00" arrival="112.00" arrivalLane="192414633#2_0" arrivalPos="21.96" arrivalSpeed="8.73" duration="51.00" routeLength="583.97" waitingTime="0.00" waitingCount="0" stopTime="0.00" timeLoss="20.85" rerouteNo="0" devices="tripinfo_61 emissions_61" vType="DEFAULT_VEHTYPE" speedFactor="1.12" vaporized="">
        <emissions CO_abs="2196.32" CO2_abs="239354.42" HC_abs="14.53" PMx_abs="15.30" NOx_abs="84.76" fuel_abs="77594.47" electricity_abs="0.00"/>
    </tripinfo>
    <tripinfo id="73" depart="73.00" departLane="192414652#3_0" departPos="5.10" departSpeed="6.44" departDelay="0.00" arrival="112.00" arrivalLane="-192414498#1_0" arrivalPos="143.96" arrivalSpeed="13.97" duration="39.00" routeLength="386.34" waitingTime="0.00" waitingCount="0" stopTime="0.00" timeLoss="10.38" rerouteNo="0" devices="tripinfo_73 emissions_73" vType="DEFAULT_VEHTYPE" speedFactor="1.06" vaporized="">
        <emissions CO_abs="714.70" CO2_abs="122854.52" HC_abs="4.75" PMx_abs="10.15" NOx_abs="41.16" fuel_abs="39827.64" electricity_abs="0.00"/>
    </tripinfo>
    <tripinfo id="104" depart="104.00" departLane="192414552#0_0" departPos="5.10" departSpeed="12.42" departDelay="0.00" arrival="112.00" arrivalLane="-192414527#1_0" arrivalPos="15.94" arrivalSpeed="10.37" duration="8.00" routeLength="65.50" waitingTime="0.00" waitingCount="0" stopTime="0.00" timeLoss="1.83" rerouteNo="0" devices="tripinfo_104 emissions_104" vType="DEFAULT_VEHTYPE" speedFactor="0.89" vaporized="">
        <emissions CO_abs="87.40" CO2_abs="20070.39" HC_abs="0.58" PMx_abs="1.32" NOx_abs="6.41" fuel_abs="6506.52" electricity_abs="0.00"/>
    </tripinfo>
    <tripinfo id="64" depart="64.00" departLane="1497309182_0" departPos="0.20" departSpeed="0.00" departDelay="0.00" arrival="114.00" arrivalLane="-191618091#2_0" arrivalPos="46.42" arrivalSpeed="12.59" duration="50.00" routeLength="343.33" waitingTime="14.00" waitingCount="2" stopTime="0.00" timeLoss="30.32" rerouteNo="0" devices="tripinfo_64 emissions_64" vType="DEFAULT_VEHTYPE" speedFactor="0.94" vaporized="">
        <emissions CO_abs="809.39" CO2_abs="152119.73" HC_abs="5.35" PMx_abs="8.53" NOx_abs="51.60" fuel_abs="49314.96" electricity_abs="0.00"/>
    </tripinfo>
    <tripinfo id="96" depart="96.00" departLane="-191500104#3_0" departPos="5.10" departSpeed="22.22" departDelay="0.00" arrival="115.00" arrivalLane="-191500104#0_0" arrivalPos="194.41" arrivalSpeed="22.37" duration="19.00" routeLength="393.25" waitingTime="0.00" waitingCount="0" stopTime="0.00" timeLoss="0.51" rerouteNo="0" devices="tripinfo_96 emissions_96" vType="DEFAULT_VEHTYPE" speedFactor="1.01" vaporized="">
        <emissions CO_abs="815.02" CO2_abs="66324.88" HC_abs="5.55" PMx_abs="10.98" NOx_abs="26.27" fuel_abs="21501.62" electricity_abs="0.00"/>
    </tripinfo>
    <tripinfo id="49" depart="49.00" departLane="1023336857#0_0" departPos="5.10" departSpeed="23.62" departDelay="0.00" arrival="119.00" arrivalLane="191494999#1_1" arrivalPos="448.23" arrivalSpeed="23.18" duration="70.00" routeLength="1019.24" waitingTime="13.00" waitingCount="1" stopTime="0.00" timeLoss="24.87" rerouteNo="0" devices="tripinfo_49 emissions_49" vType="DEFAULT_VEHTYPE" speedFactor="0.85" vaporized="">
        <emissions CO_abs="2902.91" CO2_abs="268505.55" HC_abs="19.49" PMx_abs="27.46" NOx_abs="103.46" fuel_abs="87045.39" electricity_abs="0.00"/>
    </tripinfo>
    <tripinfo id="87" depart="87.00" departLane="192414552#1_0" departPos="5.10" departSpeed="6.65" departDelay="0.00" arrival="121.00" arrivalLane="-192414600#1_0" arrivalPos="29.45" arrivalSpeed="11.99" duration="34.00" routeLength="330.71" waitingTime="0.00" waitingCount="0" stopTime="0.00" timeLoss="8.89" rerouteNo="0" devices="tripinfo_87 emissions_87" vType="DEFAULT_VEHTYPE" speedFactor="1.04" vaporized="">
        <emissions CO_abs="721.46" CO2_abs="116479.88" HC_abs="4.77" PMx_abs="7.88" NOx_abs="38.30" fuel_abs="37760.96" electricity_abs="0.00"/>
    </tripinfo>
    <tripinfo id="45" depart="45.00" departLane="-908602608_0" departPos="5.10" departSpeed="13.89" departDelay="0.00" arrival="122.00" arrivalLane="-191618091#2_0" arrivalPos="46.42" arrivalSpeed="14.41" duration="77.00" routeLength="714.99" waitingTime="9.00" waitingCount="1" stopTime="0.00" timeLoss="37.94" rerouteNo="0" devices="tripinfo_45 emissions_45" vType="DEFAULT_VEHTYPE" speedFactor="1.09" vaporized="">